
     Program PWSCF v.5.2.0 starts on 23Jun2020 at 15:58:14 

     This program is part of the open-source Quantum ESPRESSO suite
     for quantum simulation of materials; please cite
         "P. Giannozzi et al., J. Phys.:Condens. Matter 21 395502 (2009);
          URL http://www.quantum-espresso.org", 
     in publications or presentations arising from this work. More details at
     http://www.quantum-espresso.org/quote

     Parallel version (MPI), running on     2 processors
     R & G space division:  proc/nbgrp/npool/nimage =       2
     Reading input from MoS2.nsc.in
     Message from routine read_cards :
     DEPRECATED: no units specified in ATOMIC_POSITIONS card
     Message from routine read_cards :
     ATOMIC_POSITIONS: units set to alat

     Current dimensions of program PWSCF are:
     Max number of different atomic species (ntypx) = 10
     Max number of k-points (npk) =  40000
     Max angular momentum in pseudopotentials (lmaxx) =  3

     Atomic positions and unit cell read from directory:
     /home/nevensky/hdd2tb/tmp/MoS2.save/
 

     Subspace diagonalization in iterative solution of the eigenvalue problem:
     a serial algorithm will be used

 
     Parallelization info
     --------------------
     sticks:   dense  smooth     PW     G-vecs:    dense   smooth      PW
     Min         249     249     75                22055    22055    3685
     Max         250     250     76                22066    22066    3702
     Sum         499     499    151                44121    44121    7387
 


     bravais-lattice index     =            4
     lattice parameter (alat)  =       5.9715  a.u.
     unit-cell volume          =     922.0586 (a.u.)^3
     number of atoms/cell      =            3
     number of atomic types    =            2
     number of electrons       =        18.00
     number of Kohn-Sham states=           60
     kinetic-energy cutoff     =      50.0000  Ry
     charge density cutoff     =     200.0000  Ry
     Exchange-correlation      = SLA-PZ-NOGX-NOGC ( 1  1  0  0 0 0)

     celldm(1)=   5.971535  celldm(2)=   0.000000  celldm(3)=   5.000000
     celldm(4)=   0.000000  celldm(5)=   0.000000  celldm(6)=   0.000000

     crystal axes: (cart. coord. in units of alat)
               a(1) = (   1.000000   0.000000   0.000000 )  
               a(2) = (  -0.500000   0.866025   0.000000 )  
               a(3) = (   0.000000   0.000000   5.000000 )  

     reciprocal axes: (cart. coord. in units 2 pi/alat)
               b(1) = (  1.000000  0.577350  0.000000 )  
               b(2) = (  0.000000  1.154701  0.000000 )  
               b(3) = (  0.000000  0.000000  0.200000 )  


     PseudoPot. # 1 for  S read from file:
     ../PSEUDO/S.pz-hgh.UPF
     MD5 check sum: 38f9f902ee430b58f9df3cf2bf519617
     Pseudo is Norm-conserving, Zval =  6.0
     Generated in analytical, separable form
     Using radial grid of 1151 points,  3 beta functions with: 
                l(1) =   0
                l(2) =   0
                l(3) =   1

     PseudoPot. # 2 for Mo read from file:
     ../PSEUDO/Mo.pz-hgh.UPF
     MD5 check sum: ddacfae2313397baf1b67b06fa6affd0
     Pseudo is Norm-conserving, Zval =  6.0
     Generated in analytical, separable form
     Using radial grid of 1229 points,  6 beta functions with: 
                l(1) =   0
                l(2) =   0
                l(3) =   1
                l(4) =   1
                l(5) =   2
                l(6) =   2

     atomic species   valence    mass     pseudopotential
        S              6.00    32.06000      S( 1.00)
        Mo             6.00    95.95000     Mo( 1.00)

     12 Sym. Ops. (no inversion) found



   Cartesian axes

     site n.     atom                  positions (alat units)
         1           Mo  tau(   1) = (   0.0000000   0.0000000   0.0000000  )
         2           S   tau(   2) = (   0.5000000   0.2886750  -0.4983114  )
         3           S   tau(   3) = (   0.5000000   0.2886750   0.4983114  )

     number of k points=  6835

     Number of k-points >= 100: set verbosity='high' to print them.

     Dense  grid:    44121 G-vectors     FFT dimensions: (  27,  27, 135)

     Largest allocated arrays     est. size (Mb)     dimensions
        Kohn-Sham Wavefunctions         2.58 Mb     (    2822,   60)
        NL pseudopotentials             1.21 Mb     (    2822,   28)
        Each V/rho on FFT grid          0.76 Mb     (   49572)
        Each G-vector array             0.17 Mb     (   22066)
        G-vector shells                 0.01 Mb     (    1479)
     Largest temporary arrays     est. size (Mb)     dimensions
        Auxiliary wavefunctions        10.33 Mb     (    2822,  240)
        Each subspace H/S matrix        0.88 Mb     (     240,  240)
        Each <psi_i|beta_j> matrix      0.03 Mb     (      28,   60)

     The potential is recalculated from file :
     /home/nevensky/hdd2tb/tmp/MoS2.save/charge-density.dat

     Starting wfc are   27 randomized atomic wfcs +   33 random wfc

     Band Structure Calculation
     Davidson diagonalization with overlap
     c_bands:  1 eigenvalues not converged

     ethr =  5.56E-09,  avg # of iterations = 17.0

     total cpu time spent up to now is     8882.1 secs

     End of band structure calculation

     Number of k-points >= 100: set verbosity='high' to print the bands.

     highest occupied, lowest unoccupied level (ev):    -0.5437    1.2700

     Writing output data file MoS2.save
 
     init_run     :      1.34s CPU      1.39s WALL (       1 calls)
     electrons    :  34638.30s CPU   8880.50s WALL (       1 calls)

     Called by init_run:
     wfcinit      :      0.00s CPU      0.00s WALL (       1 calls)
     potinit      :      0.02s CPU      0.03s WALL (       1 calls)

     Called by electrons:
     c_bands      :  34638.29s CPU   8880.49s WALL (       1 calls)
     v_of_rho     :      0.01s CPU      0.00s WALL (       1 calls)

     Called by c_bands:
     init_us_2    :     16.76s CPU      4.36s WALL (    6835 calls)
     cegterg      :  31767.92s CPU   8145.60s WALL (    7495 calls)

     Called by sum_band:

     Called by *egterg:
     h_psi        :  27653.48s CPU   7141.38s WALL (  130766 calls)
     g_psi        :    325.10s CPU     29.34s WALL (  116436 calls)
     cdiaghg      :   2995.41s CPU    763.06s WALL (  123271 calls)

     Called by h_psi:
     add_vuspsi   :    210.57s CPU     68.12s WALL (  130766 calls)

     General routines
     calbec       :    139.43s CPU     69.43s WALL (  130766 calls)
     fft          :      0.01s CPU      0.02s WALL (       3 calls)
     fftw         :  25800.85s CPU   6626.92s WALL ( 9099870 calls)
     davcio       :     56.73s CPU    329.51s WALL (   13670 calls)
 
     Parallel routines
     fft_scatter  :   2766.30s CPU    658.66s WALL ( 9099873 calls)
 
     PWSCF        :     9h40m CPU        2h37m WALL

 
   This run was terminated on:  18:35:35  23Jun2020            

=------------------------------------------------------------------------------=
   JOB DONE.
=------------------------------------------------------------------------------=
