
     Program PWSCF v.5.2.0 starts on 23Jun2020 at 15:57:52 

     This program is part of the open-source Quantum ESPRESSO suite
     for quantum simulation of materials; please cite
         "P. Giannozzi et al., J. Phys.:Condens. Matter 21 395502 (2009);
          URL http://www.quantum-espresso.org", 
     in publications or presentations arising from this work. More details at
     http://www.quantum-espresso.org/quote

     Parallel version (MPI), running on     2 processors
     R & G space division:  proc/nbgrp/npool/nimage =       2
     Reading input from MoS2.sc.in
     Message from routine read_cards :
     DEPRECATED: no units specified in ATOMIC_POSITIONS card
     Message from routine read_cards :
     ATOMIC_POSITIONS: units set to alat

     Current dimensions of program PWSCF are:
     Max number of different atomic species (ntypx) = 10
     Max number of k-points (npk) =  40000
     Max angular momentum in pseudopotentials (lmaxx) =  3

     Subspace diagonalization in iterative solution of the eigenvalue problem:
     a serial algorithm will be used

 
     Parallelization info
     --------------------
     sticks:   dense  smooth     PW     G-vecs:    dense   smooth      PW
     Min         249     249     75                22055    22055    3685
     Max         250     250     76                22066    22066    3702
     Sum         499     499    151                44121    44121    7387
 


     bravais-lattice index     =            4
     lattice parameter (alat)  =       5.9715  a.u.
     unit-cell volume          =     922.0586 (a.u.)^3
     number of atoms/cell      =            3
     number of atomic types    =            2
     number of electrons       =        18.00
     number of Kohn-Sham states=           13
     kinetic-energy cutoff     =      50.0000  Ry
     charge density cutoff     =     200.0000  Ry
     convergence threshold     =      1.0E-06
     mixing beta               =       0.7000
     number of iterations used =            8  plain     mixing
     Exchange-correlation      = SLA-PZ-NOGX-NOGC ( 1  1  0  0 0 0)

     celldm(1)=   5.971535  celldm(2)=   0.000000  celldm(3)=   5.000000
     celldm(4)=   0.000000  celldm(5)=   0.000000  celldm(6)=   0.000000

     crystal axes: (cart. coord. in units of alat)
               a(1) = (   1.000000   0.000000   0.000000 )  
               a(2) = (  -0.500000   0.866025   0.000000 )  
               a(3) = (   0.000000   0.000000   5.000000 )  

     reciprocal axes: (cart. coord. in units 2 pi/alat)
               b(1) = (  1.000000  0.577350  0.000000 )  
               b(2) = (  0.000000  1.154701  0.000000 )  
               b(3) = (  0.000000  0.000000  0.200000 )  


     PseudoPot. # 1 for  S read from file:
     ../PSEUDO/S.pz-hgh.UPF
     MD5 check sum: 38f9f902ee430b58f9df3cf2bf519617
     Pseudo is Norm-conserving, Zval =  6.0
     Generated in analytical, separable form
     Using radial grid of 1151 points,  3 beta functions with: 
                l(1) =   0
                l(2) =   0
                l(3) =   1

     PseudoPot. # 2 for Mo read from file:
     ../PSEUDO/Mo.pz-hgh.UPF
     MD5 check sum: ddacfae2313397baf1b67b06fa6affd0
     Pseudo is Norm-conserving, Zval =  6.0
     Generated in analytical, separable form
     Using radial grid of 1229 points,  6 beta functions with: 
                l(1) =   0
                l(2) =   0
                l(3) =   1
                l(4) =   1
                l(5) =   2
                l(6) =   2

     atomic species   valence    mass     pseudopotential
        S              6.00    32.06000      S( 1.00)
        Mo             6.00    95.95000     Mo( 1.00)

     12 Sym. Ops. (no inversion) found


                                    s                        frac. trans.

      isym =  1     identity                                     

 cryst.   s( 1) = (     1          0          0      )
                  (     0          1          0      )
                  (     0          0          1      )

 cart.    s( 1) = (  1.0000000  0.0000000  0.0000000 )
                  (  0.0000000  1.0000000  0.0000000 )
                  (  0.0000000  0.0000000  1.0000000 )


      isym =  2     180 deg rotation - cart. axis [0,1,0]        

 cryst.   s( 2) = (    -1          0          0      )
                  (     1          1          0      )
                  (     0          0         -1      )

 cart.    s( 2) = ( -1.0000000  0.0000000  0.0000000 )
                  (  0.0000000  1.0000000  0.0000000 )
                  (  0.0000000  0.0000000 -1.0000000 )


      isym =  3     120 deg rotation - cryst. axis [0,0,1]       

 cryst.   s( 3) = (     0          1          0      )
                  (    -1         -1          0      )
                  (     0          0          1      )

 cart.    s( 3) = ( -0.5000000 -0.8660254  0.0000000 )
                  (  0.8660254 -0.5000000  0.0000000 )
                  (  0.0000000  0.0000000  1.0000000 )


      isym =  4     120 deg rotation - cryst. axis [0,0,-1]      

 cryst.   s( 4) = (    -1         -1          0      )
                  (     1          0          0      )
                  (     0          0          1      )

 cart.    s( 4) = ( -0.5000000  0.8660254  0.0000000 )
                  ( -0.8660254 -0.5000000  0.0000000 )
                  (  0.0000000  0.0000000  1.0000000 )


      isym =  5     180 deg rotation - cryst. axis [1,-1,0]      

 cryst.   s( 5) = (     0         -1          0      )
                  (    -1          0          0      )
                  (     0          0         -1      )

 cart.    s( 5) = (  0.5000000 -0.8660254  0.0000000 )
                  ( -0.8660254 -0.5000000  0.0000000 )
                  (  0.0000000  0.0000000 -1.0000000 )


      isym =  6     180 deg rotation - cryst. axis [2,1,0]       

 cryst.   s( 6) = (     1          1          0      )
                  (     0         -1          0      )
                  (     0          0         -1      )

 cart.    s( 6) = (  0.5000000  0.8660254  0.0000000 )
                  (  0.8660254 -0.5000000  0.0000000 )
                  (  0.0000000  0.0000000 -1.0000000 )


      isym =  7     inv. 180 deg rotation - cart. axis [0,0,1]   

 cryst.   s( 7) = (     1          0          0      )
                  (     0          1          0      )
                  (     0          0         -1      )

 cart.    s( 7) = (  1.0000000  0.0000000  0.0000000 )
                  (  0.0000000  1.0000000  0.0000000 )
                  (  0.0000000  0.0000000 -1.0000000 )


      isym =  8     inv. 180 deg rotation - cart. axis [1,0,0]   

 cryst.   s( 8) = (    -1          0          0      )
                  (     1          1          0      )
                  (     0          0          1      )

 cart.    s( 8) = ( -1.0000000  0.0000000  0.0000000 )
                  (  0.0000000  1.0000000  0.0000000 )
                  (  0.0000000  0.0000000  1.0000000 )


      isym =  9     inv.  60 deg rotation - cryst. axis [0,0,1]  

 cryst.   s( 9) = (    -1         -1          0      )
                  (     1          0          0      )
                  (     0          0         -1      )

 cart.    s( 9) = ( -0.5000000  0.8660254  0.0000000 )
                  ( -0.8660254 -0.5000000  0.0000000 )
                  (  0.0000000  0.0000000 -1.0000000 )


      isym = 10     inv.  60 deg rotation - cryst. axis [0,0,-1] 

 cryst.   s(10) = (     0          1          0      )
                  (    -1         -1          0      )
                  (     0          0         -1      )

 cart.    s(10) = ( -0.5000000 -0.8660254  0.0000000 )
                  (  0.8660254 -0.5000000  0.0000000 )
                  (  0.0000000  0.0000000 -1.0000000 )


      isym = 11     inv. 180 deg rotation - cryst. axis [0,1,0]  

 cryst.   s(11) = (     1          1          0      )
                  (     0         -1          0      )
                  (     0          0          1      )

 cart.    s(11) = (  0.5000000  0.8660254  0.0000000 )
                  (  0.8660254 -0.5000000  0.0000000 )
                  (  0.0000000  0.0000000  1.0000000 )


      isym = 12     inv. 180 deg rotation - cryst. axis [1,1,0]  

 cryst.   s(12) = (     0         -1          0      )
                  (    -1          0          0      )
                  (     0          0          1      )

 cart.    s(12) = (  0.5000000 -0.8660254  0.0000000 )
                  ( -0.8660254 -0.5000000  0.0000000 )
                  (  0.0000000  0.0000000  1.0000000 )


     point group D_3h (-62m)
     there are  6 classes
     the character table:

       E     2C3   3C2   s_h   2S3   3s_v 
A'_1   1.00  1.00  1.00  1.00  1.00  1.00
A'_2   1.00  1.00 -1.00  1.00  1.00 -1.00
E'     2.00 -1.00  0.00  2.00 -1.00  0.00
A''1   1.00  1.00  1.00 -1.00 -1.00 -1.00
A''2   1.00  1.00 -1.00 -1.00 -1.00  1.00
E''    2.00 -1.00  0.00 -2.00  1.00  0.00

     the symmetry operations in each class and the name of the first element:

     E        1
          identity                                               
     2C3      3    4
          120 deg rotation - cryst. axis [0,0,1]                 
     3C2      2    6    5
          180 deg rotation - cart. axis [0,1,0]                  
     s_h      7
          inv. 180 deg rotation - cart. axis [0,0,1]             
     2S3      9   10
          inv.  60 deg rotation - cryst. axis [0,0,1]            
     3s_v     8   11   12
          inv. 180 deg rotation - cart. axis [1,0,0]             

   Cartesian axes

     site n.     atom                  positions (alat units)
         1           Mo  tau(   1) = (   0.0000000   0.0000000   0.0000000  )
         2           S   tau(   2) = (   0.5000000   0.2886750  -0.4983114  )
         3           S   tau(   3) = (   0.5000000   0.2886750   0.4983114  )

   Crystallographic axes

     site n.     atom                  positions (cryst. coord.)
         1           Mo  tau(   1) = (  0.0000000  0.0000000  0.0000000  )
         2           S   tau(   2) = (  0.6666666  0.3333332 -0.0996623  )
         3           S   tau(   3) = (  0.6666666  0.3333332  0.0996623  )

     number of k points=    31  gaussian smearing, width (Ry)=  0.0100
                       cart. coord. in units 2pi/alat
        k(    1) = (   0.0000000   0.0000000   0.0000000), wk =   0.0138889
        k(    2) = (   0.0000000   0.0962250   0.0000000), wk =   0.0416667
        k(    3) = (   0.0000000   0.1924501   0.0000000), wk =   0.0416667
        k(    4) = (   0.0000000   0.2886751   0.0000000), wk =   0.0416667
        k(    5) = (   0.0000000   0.3849002   0.0000000), wk =   0.0416667
        k(    6) = (   0.0000000   0.4811252   0.0000000), wk =   0.0416667
        k(    7) = (   0.0000000  -0.5773503   0.0000000), wk =   0.0416667
        k(    8) = (   0.0833333   0.1443376   0.0000000), wk =   0.0833333
        k(    9) = (   0.0833333   0.2405626   0.0000000), wk =   0.0833333
        k(   10) = (   0.0833333   0.3367877   0.0000000), wk =   0.0833333
        k(   11) = (   0.0833333   0.4330127   0.0000000), wk =   0.0833333
        k(   12) = (   0.0833333   0.5292377   0.0000000), wk =   0.0833333
        k(   13) = (   0.1666667   0.2886751   0.0000000), wk =   0.0833333
        k(   14) = (   0.1666667   0.3849002   0.0000000), wk =   0.0833333
        k(   15) = (   0.1666667   0.4811252   0.0000000), wk =   0.0833333
        k(   16) = (   0.1666667   0.5773503   0.0000000), wk =   0.0833333
        k(   17) = (   0.2500000   0.4330127   0.0000000), wk =   0.0833333
        k(   18) = (   0.2500000   0.5292377   0.0000000), wk =   0.0833333
        k(   19) = (   0.3333333   0.5773503   0.0000000), wk =   0.0277778
        k(   20) = (   0.0000000  -0.0962250   0.0000000), wk =   0.0416667
        k(   21) = (   0.0000000  -0.1924501   0.0000000), wk =   0.0416667
        k(   22) = (   0.0000000  -0.2886751   0.0000000), wk =   0.0416667
        k(   23) = (   0.0000000  -0.3849002   0.0000000), wk =   0.0416667
        k(   24) = (   0.0000000  -0.4811252   0.0000000), wk =   0.0416667
        k(   25) = (  -0.0833333  -0.2405626   0.0000000), wk =   0.0833333
        k(   26) = (  -0.0833333  -0.3367877   0.0000000), wk =   0.0833333
        k(   27) = (  -0.0833333  -0.4330127   0.0000000), wk =   0.0833333
        k(   28) = (  -0.0833333  -0.5292377   0.0000000), wk =   0.0833333
        k(   29) = (  -0.1666667  -0.3849002   0.0000000), wk =   0.0833333
        k(   30) = (  -0.1666667  -0.4811252   0.0000000), wk =   0.0833333
        k(   31) = (  -0.2500000  -0.5292377   0.0000000), wk =   0.0833333

                       cryst. coord.
        k(    1) = (   0.0000000   0.0000000   0.0000000), wk =   0.0138889
        k(    2) = (   0.0000000   0.0833333   0.0000000), wk =   0.0416667
        k(    3) = (   0.0000000   0.1666667   0.0000000), wk =   0.0416667
        k(    4) = (   0.0000000   0.2500000   0.0000000), wk =   0.0416667
        k(    5) = (   0.0000000   0.3333333   0.0000000), wk =   0.0416667
        k(    6) = (   0.0000000   0.4166667   0.0000000), wk =   0.0416667
        k(    7) = (   0.0000000  -0.5000000   0.0000000), wk =   0.0416667
        k(    8) = (   0.0833333   0.0833333   0.0000000), wk =   0.0833333
        k(    9) = (   0.0833333   0.1666667   0.0000000), wk =   0.0833333
        k(   10) = (   0.0833333   0.2500000   0.0000000), wk =   0.0833333
        k(   11) = (   0.0833333   0.3333333   0.0000000), wk =   0.0833333
        k(   12) = (   0.0833333   0.4166667   0.0000000), wk =   0.0833333
        k(   13) = (   0.1666667   0.1666667   0.0000000), wk =   0.0833333
        k(   14) = (   0.1666667   0.2500000   0.0000000), wk =   0.0833333
        k(   15) = (   0.1666667   0.3333333   0.0000000), wk =   0.0833333
        k(   16) = (   0.1666667   0.4166667   0.0000000), wk =   0.0833333
        k(   17) = (   0.2500000   0.2500000   0.0000000), wk =   0.0833333
        k(   18) = (   0.2500000   0.3333333   0.0000000), wk =   0.0833333
        k(   19) = (   0.3333333   0.3333333   0.0000000), wk =   0.0277778
        k(   20) = (   0.0000000  -0.0833333   0.0000000), wk =   0.0416667
        k(   21) = (   0.0000000  -0.1666667   0.0000000), wk =   0.0416667
        k(   22) = (   0.0000000  -0.2500000   0.0000000), wk =   0.0416667
        k(   23) = (   0.0000000  -0.3333333   0.0000000), wk =   0.0416667
        k(   24) = (   0.0000000  -0.4166667   0.0000000), wk =   0.0416667
        k(   25) = (  -0.0833333  -0.1666667   0.0000000), wk =   0.0833333
        k(   26) = (  -0.0833333  -0.2500000   0.0000000), wk =   0.0833333
        k(   27) = (  -0.0833333  -0.3333333   0.0000000), wk =   0.0833333
        k(   28) = (  -0.0833333  -0.4166667   0.0000000), wk =   0.0833333
        k(   29) = (  -0.1666667  -0.2500000   0.0000000), wk =   0.0833333
        k(   30) = (  -0.1666667  -0.3333333   0.0000000), wk =   0.0833333
        k(   31) = (  -0.2500000  -0.3333333   0.0000000), wk =   0.0833333

     Dense  grid:    44121 G-vectors     FFT dimensions: (  27,  27, 135)

     Largest allocated arrays     est. size (Mb)     dimensions
        Kohn-Sham Wavefunctions         0.56 Mb     (    2818,   13)
        NL pseudopotentials             1.20 Mb     (    2818,   28)
        Each V/rho on FFT grid          0.76 Mb     (   49572)
        Each G-vector array             0.17 Mb     (   22066)
        G-vector shells                 0.01 Mb     (    1479)
     Largest temporary arrays     est. size (Mb)     dimensions
        Auxiliary wavefunctions         2.24 Mb     (    2818,   52)
        Each subspace H/S matrix        0.04 Mb     (      52,   52)
        Each <psi_i|beta_j> matrix      0.01 Mb     (      28,   13)
        Arrays for rho mixing           6.05 Mb     (   49572,    8)

     Initial potential from superposition of free atoms

     starting charge   15.99930, renormalised to   18.00000

     negative rho (up, down):  7.892E-05 0.000E+00
     Starting wfc are   27 randomized atomic wfcs

     total cpu time spent up to now is        1.8 secs

     per-process dynamical memory:    81.6 Mb

     Self-consistent Calculation

     iteration #  1     ecut=    50.00 Ry     beta=0.70
     Davidson diagonalization with overlap
     ethr =  1.00E-02,  avg # of iterations =  2.3

     negative rho (up, down):  4.334E-08 0.000E+00

     total cpu time spent up to now is        4.2 secs

     total energy              =     -56.37778659 Ry
     Harris-Foulkes estimate   =     -57.44774553 Ry
     estimated scf accuracy    <       1.32247770 Ry

     iteration #  2     ecut=    50.00 Ry     beta=0.70
     Davidson diagonalization with overlap
     ethr =  7.35E-03,  avg # of iterations =  3.6

     negative rho (up, down):  2.655E-08 0.000E+00

     total cpu time spent up to now is        7.0 secs

     total energy              =     -55.46204913 Ry
     Harris-Foulkes estimate   =     -59.39856409 Ry
     estimated scf accuracy    <      15.00096610 Ry

     iteration #  3     ecut=    50.00 Ry     beta=0.70
     Davidson diagonalization with overlap
     ethr =  7.35E-03,  avg # of iterations =  2.7

     total cpu time spent up to now is        9.5 secs

     total energy              =     -57.20968258 Ry
     Harris-Foulkes estimate   =     -57.23047893 Ry
     estimated scf accuracy    <       0.05022609 Ry

     iteration #  4     ecut=    50.00 Ry     beta=0.70
     Davidson diagonalization with overlap
     ethr =  2.79E-04,  avg # of iterations =  3.0

     total cpu time spent up to now is       12.3 secs

     total energy              =     -57.22630588 Ry
     Harris-Foulkes estimate   =     -57.22867522 Ry
     estimated scf accuracy    <       0.00892167 Ry

     iteration #  5     ecut=    50.00 Ry     beta=0.70
     Davidson diagonalization with overlap
     ethr =  4.96E-05,  avg # of iterations =  1.0

     total cpu time spent up to now is       14.2 secs

     total energy              =     -57.22665774 Ry
     Harris-Foulkes estimate   =     -57.22691168 Ry
     estimated scf accuracy    <       0.00081040 Ry

     iteration #  6     ecut=    50.00 Ry     beta=0.70
     Davidson diagonalization with overlap
     ethr =  4.50E-06,  avg # of iterations =  2.7

     total cpu time spent up to now is       16.5 secs

     total energy              =     -57.22682440 Ry
     Harris-Foulkes estimate   =     -57.22684246 Ry
     estimated scf accuracy    <       0.00005788 Ry

     iteration #  7     ecut=    50.00 Ry     beta=0.70
     Davidson diagonalization with overlap
     ethr =  3.22E-07,  avg # of iterations =  2.1

     total cpu time spent up to now is       18.7 secs

     total energy              =     -57.22682965 Ry
     Harris-Foulkes estimate   =     -57.22683290 Ry
     estimated scf accuracy    <       0.00000798 Ry

     iteration #  8     ecut=    50.00 Ry     beta=0.70
     Davidson diagonalization with overlap
     ethr =  4.43E-08,  avg # of iterations =  2.6

     total cpu time spent up to now is       21.1 secs

     End of self-consistent calculation

          k = 0.0000 0.0000 0.0000 (  5527 PWs)   bands (ev):

   -14.7093 -13.4724  -6.2301  -3.1210  -3.1210  -2.3797  -1.9522  -1.9522
    -0.6865   2.3912   2.3912   2.5567   2.5567

     occupation numbers 
     1.0000   1.0000   1.0000   1.0000   1.0000   1.0000   1.0000   1.0000
     1.0000   0.0000   0.0000   0.0000   0.0000

          k = 0.0000 0.0962 0.0000 (  5529 PWs)   bands (ev):

   -14.6065 -13.4194  -6.1096  -3.3531  -3.0079  -2.8107  -2.1210  -1.6832
    -0.7263   2.2272   2.2440   2.4398   2.5689

     occupation numbers 
     1.0000   1.0000   1.0000   1.0000   1.0000   1.0000   1.0000   1.0000
     1.0000   0.0000   0.0000   0.0000   0.0000

          k = 0.0000 0.1925 0.0000 (  5521 PWs)   bands (ev):

   -14.3121 -13.2681  -5.8038  -3.8924  -3.4520  -2.6904  -2.5203  -1.6198
    -0.9305   1.7553   2.1273   2.1685   2.9721

     occupation numbers 
     1.0000   1.0000   1.0000   1.0000   1.0000   1.0000   1.0000   1.0000
     1.0000   0.0000   0.0000   0.0000   0.0000

          k = 0.0000 0.2887 0.0000 (  5508 PWs)   bands (ev):

   -13.8710 -13.0438  -5.5722  -4.3745  -4.1300  -2.9686  -2.2447  -1.8880
    -1.3411   1.6074   1.9024   2.4362   3.3817

     occupation numbers 
     1.0000   1.0000   1.0000   1.0000   1.0000   1.0000   1.0000   1.0000
     1.0000   0.0000   0.0000   0.0000   0.0000

          k = 0.0000 0.3849 0.0000 (  5500 PWs)   bands (ev):

   -13.3680 -12.7939  -5.8285  -4.7804  -4.4838  -3.3453  -2.2018  -1.8004
    -1.5849   1.7671   1.8028   2.9483   3.6734

     occupation numbers 
     1.0000   1.0000   1.0000   1.0000   1.0000   1.0000   1.0000   1.0000
     1.0000   0.0000   0.0000   0.0000   0.0000

          k = 0.0000 0.4811 0.0000 (  5490 PWs)   bands (ev):

   -12.9422 -12.5898  -6.2430  -5.2682  -4.5801  -3.5898  -2.3979  -1.4939
    -1.4056   1.7813   2.1308   3.3588   3.8293

     occupation numbers 
     1.0000   1.0000   1.0000   1.0000   1.0000   1.0000   1.0000   1.0000
     1.0000   0.0000   0.0000   0.0000   0.0000

          k = 0.0000-0.5774 0.0000 (  5498 PWs)   bands (ev):

   -12.7692 -12.5095  -6.4230  -5.4510  -4.6551  -3.6743  -2.4602  -1.3911
    -1.2344   1.8174   2.3216   3.5029   3.8760

     occupation numbers 
     1.0000   1.0000   1.0000   1.0000   1.0000   1.0000   1.0000   1.0000
     1.0000   0.0000   0.0000   0.0000   0.0000

          k = 0.0833 0.1443 0.0000 (  5517 PWs)   bands (ev):

   -14.4078 -13.3171  -5.8928  -3.7303  -3.2345  -2.8016  -2.5165  -1.5040
    -0.8479   1.8667   2.0528   2.2307   2.8975

     occupation numbers 
     1.0000   1.0000   1.0000   1.0000   1.0000   1.0000   1.0000   1.0000
     1.0000   0.0000   0.0000   0.0000   0.0000

          k = 0.0833 0.2406 0.0000 (  5512 PWs)   bands (ev):

   -14.0390 -13.1282  -5.5931  -4.2243  -3.7832  -3.0883  -2.4741  -1.5483
    -1.1642   1.5407   2.0039   2.1023   3.3489

     occupation numbers 
     1.0000   1.0000   1.0000   1.0000   1.0000   1.0000   1.0000   1.0000
     1.0000   0.0000   0.0000   0.0000   0.0000

          k = 0.0833 0.3368 0.0000 (  5489 PWs)   bands (ev):

   -13.5631 -12.8875  -5.6116  -4.4606  -4.4271  -3.4700  -2.2405  -1.8604
    -1.4234   1.4920   1.9583   2.4995   3.6995

     occupation numbers 
     1.0000   1.0000   1.0000   1.0000   1.0000   1.0000   1.0000   1.0000
     1.0000   0.0000   0.0000   0.0000   0.0000

          k = 0.0833 0.4330 0.0000 (  5491 PWs)   bands (ev):

   -13.0896 -12.6539  -5.9860  -5.0911  -4.4655  -3.6465  -2.2053  -2.1444
    -1.2751   1.6802   2.0794   2.9990   3.8428

     occupation numbers 
     1.0000   1.0000   1.0000   1.0000   1.0000   1.0000   1.0000   1.0000
     1.0000   0.0000   0.0000   0.0000   0.0000

          k = 0.0833 0.5292 0.0000 (  5509 PWs)   bands (ev):

   -12.7790 -12.5053  -6.2792  -5.4643  -4.5938  -3.7067  -2.4169  -2.0047
    -1.0327   1.8205   2.3196   3.4135   3.7513

     occupation numbers 
     1.0000   1.0000   1.0000   1.0000   1.0000   1.0000   1.0000   1.0000
     1.0000   0.0000   0.0000   0.0000   0.0000

          k = 0.1667 0.2887 0.0000 (  5523 PWs)   bands (ev):

   -13.6328 -12.9202  -5.5098  -4.3769  -4.2045  -3.7408  -2.4763  -1.5948
    -1.3571   1.3614   2.0184   2.1937   3.7633

     occupation numbers 
     1.0000   1.0000   1.0000   1.0000   1.0000   1.0000   1.0000   1.0000
     1.0000   0.0000   0.0000   0.0000   0.0000

          k = 0.1667 0.3849 0.0000 (  5481 PWs)   bands (ev):

   -13.1762 -12.6875  -5.7181  -4.9265  -4.2793  -3.8656  -2.7926  -1.9121
    -1.2693   1.5254   2.1386   2.5064   4.0082

     occupation numbers 
     1.0000   1.0000   1.0000   1.0000   1.0000   1.0000   1.0000   1.0000
     1.0000   0.0000   0.0000   0.0000   0.0000

          k = 0.1667 0.4811 0.0000 (  5513 PWs)   bands (ev):

   -12.7981 -12.4968  -5.9434  -5.4861  -4.3999  -3.7934  -2.9125  -2.2922
    -1.0149   1.7488   2.3628   2.8203   4.0792

     occupation numbers 
     1.0000   1.0000   1.0000   1.0000   1.0000   1.0000   1.0000   1.0000
     1.0000   0.0000   0.0000   0.0000   0.0000

          k = 0.1667 0.5774 0.0000 (  5528 PWs)   bands (ev):

   -12.6476 -12.4216  -6.0290  -5.6910  -4.5308  -3.7257  -2.9002  -2.4726
    -0.8394   1.7154   2.6134   2.9495   4.0757

     occupation numbers 
     1.0000   1.0000   1.0000   1.0000   1.0000   1.0000   1.0000   1.0000
     1.0000   0.0000   0.0000   0.0000   0.0000

          k = 0.2500 0.4330 0.0000 (  5499 PWs)   bands (ev):

   -12.8075 -12.4925  -5.7413  -5.4943  -4.1438  -3.8442  -3.5095  -2.2129
    -1.0357   1.6970   2.3930   2.5508   4.2586

     occupation numbers 
     1.0000   1.0000   1.0000   1.0000   1.0000   1.0000   1.0000   1.0000
     1.0000   0.0000   0.0000   0.0000   0.0000

          k = 0.2500 0.5292 0.0000 (  5508 PWs)   bands (ev):

   -12.5774 -12.3679  -5.8511  -5.6261  -4.4002  -3.7831  -3.6676  -2.5458
    -0.7253   1.5044   2.5613   2.8568   4.4476

     occupation numbers 
     1.0000   1.0000   1.0000   1.0000   1.0000   1.0000   1.0000   1.0000
     1.0000   0.0000   0.0000   0.0000   0.0000

          k = 0.3333 0.5774 0.0000 (  5499 PWs)   bands (ev):

   -12.4954 -12.3172  -5.9963  -5.2204  -4.7038  -4.1003  -3.5351  -2.7211
    -0.5338   1.2807   2.4463   3.1271   4.6336

     occupation numbers 
     1.0000   1.0000   1.0000   1.0000   1.0000   1.0000   1.0000   1.0000
     1.0000   0.0000   0.0000   0.0000   0.0000

          k = 0.0000-0.0962 0.0000 (  5529 PWs)   bands (ev):

   -14.6065 -13.4194  -6.1096  -3.3531  -3.0079  -2.8107  -2.1210  -1.6832
    -0.7263   2.2272   2.2440   2.4398   2.5689

     occupation numbers 
     1.0000   1.0000   1.0000   1.0000   1.0000   1.0000   1.0000   1.0000
     1.0000   0.0000   0.0000   0.0000   0.0000

          k = 0.0000-0.1925 0.0000 (  5521 PWs)   bands (ev):

   -14.3121 -13.2681  -5.8038  -3.8924  -3.4520  -2.6904  -2.5203  -1.6198
    -0.9305   1.7553   2.1273   2.1685   2.9721

     occupation numbers 
     1.0000   1.0000   1.0000   1.0000   1.0000   1.0000   1.0000   1.0000
     1.0000   0.0000   0.0000   0.0000   0.0000

          k = 0.0000-0.2887 0.0000 (  5508 PWs)   bands (ev):

   -13.8710 -13.0438  -5.5722  -4.3745  -4.1300  -2.9686  -2.2447  -1.8880
    -1.3411   1.6074   1.9024   2.4362   3.3817

     occupation numbers 
     1.0000   1.0000   1.0000   1.0000   1.0000   1.0000   1.0000   1.0000
     1.0000   0.0000   0.0000   0.0000   0.0000

          k = 0.0000-0.3849 0.0000 (  5500 PWs)   bands (ev):

   -13.3680 -12.7939  -5.8285  -4.7804  -4.4838  -3.3453  -2.2018  -1.8004
    -1.5849   1.7671   1.8028   2.9483   3.6734

     occupation numbers 
     1.0000   1.0000   1.0000   1.0000   1.0000   1.0000   1.0000   1.0000
     1.0000   0.0000   0.0000   0.0000   0.0000

          k = 0.0000-0.4811 0.0000 (  5490 PWs)   bands (ev):

   -12.9422 -12.5898  -6.2430  -5.2682  -4.5801  -3.5898  -2.3979  -1.4939
    -1.4056   1.7813   2.1308   3.3588   3.8293

     occupation numbers 
     1.0000   1.0000   1.0000   1.0000   1.0000   1.0000   1.0000   1.0000
     1.0000   0.0000   0.0000   0.0000   0.0000

          k =-0.0833-0.2406 0.0000 (  5512 PWs)   bands (ev):

   -14.0390 -13.1282  -5.5931  -4.2243  -3.7832  -3.0883  -2.4741  -1.5483
    -1.1642   1.5407   2.0039   2.1023   3.3489

     occupation numbers 
     1.0000   1.0000   1.0000   1.0000   1.0000   1.0000   1.0000   1.0000
     1.0000   0.0000   0.0000   0.0000   0.0000

          k =-0.0833-0.3368 0.0000 (  5489 PWs)   bands (ev):

   -13.5631 -12.8875  -5.6116  -4.4606  -4.4271  -3.4700  -2.2405  -1.8604
    -1.4234   1.4920   1.9583   2.4995   3.6995

     occupation numbers 
     1.0000   1.0000   1.0000   1.0000   1.0000   1.0000   1.0000   1.0000
     1.0000   0.0000   0.0000   0.0000   0.0000

          k =-0.0833-0.4330 0.0000 (  5491 PWs)   bands (ev):

   -13.0896 -12.6539  -5.9860  -5.0911  -4.4655  -3.6465  -2.2053  -2.1444
    -1.2751   1.6802   2.0794   2.9990   3.8428

     occupation numbers 
     1.0000   1.0000   1.0000   1.0000   1.0000   1.0000   1.0000   1.0000
     1.0000   0.0000   0.0000   0.0000   0.0000

          k =-0.0833-0.5292 0.0000 (  5509 PWs)   bands (ev):

   -12.7790 -12.5053  -6.2792  -5.4643  -4.5938  -3.7067  -2.4169  -2.0047
    -1.0327   1.8205   2.3196   3.4135   3.7513

     occupation numbers 
     1.0000   1.0000   1.0000   1.0000   1.0000   1.0000   1.0000   1.0000
     1.0000   0.0000   0.0000   0.0000   0.0000

          k =-0.1667-0.3849 0.0000 (  5481 PWs)   bands (ev):

   -13.1762 -12.6875  -5.7181  -4.9265  -4.2793  -3.8656  -2.7926  -1.9121
    -1.2693   1.5254   2.1386   2.5064   4.0082

     occupation numbers 
     1.0000   1.0000   1.0000   1.0000   1.0000   1.0000   1.0000   1.0000
     1.0000   0.0000   0.0000   0.0000   0.0000

          k =-0.1667-0.4811 0.0000 (  5513 PWs)   bands (ev):

   -12.7981 -12.4968  -5.9434  -5.4861  -4.3999  -3.7934  -2.9125  -2.2922
    -1.0149   1.7488   2.3628   2.8203   4.0792

     occupation numbers 
     1.0000   1.0000   1.0000   1.0000   1.0000   1.0000   1.0000   1.0000
     1.0000   0.0000   0.0000   0.0000   0.0000

          k =-0.2500-0.5292 0.0000 (  5508 PWs)   bands (ev):

   -12.5774 -12.3679  -5.8511  -5.6261  -4.4002  -3.7831  -3.6676  -2.5458
    -0.7253   1.5044   2.5613   2.8568   4.4476

     occupation numbers 
     1.0000   1.0000   1.0000   1.0000   1.0000   1.0000   1.0000   1.0000
     1.0000   0.0000   0.0000   0.0000   0.0000

     the Fermi energy is     0.5554 ev

!    total energy              =     -57.22683142 Ry
     Harris-Foulkes estimate   =     -57.22683194 Ry
     estimated scf accuracy    <       0.00000061 Ry

     The total energy is the sum of the following terms:

     one-electron contribution =    -301.51010908 Ry
     hartree contribution      =     155.62476907 Ry
     xc contribution           =     -13.11717374 Ry
     ewald contribution        =     101.77568233 Ry
     smearing contrib. (-TS)   =      -0.00000000 Ry

     convergence has been achieved in   8 iterations

     Forces acting on atoms (Ry/au):

     atom    1 type  2   force =     0.00000000   -0.00000000    0.00000000
     atom    2 type  1   force =     0.00000000    0.00000000    0.01227970
     atom    3 type  1   force =     0.00000000    0.00000000   -0.01227970
     The non-local contrib.  to forces
     atom    1 type  2   force =     0.00000000    0.00000000    0.00000000
     atom    2 type  1   force =     0.00000000    0.00000000    0.34645353
     atom    3 type  1   force =     0.00000000    0.00000000   -0.34645353
     The ionic contribution  to forces
     atom    1 type  2   force =     0.00000000   -0.00000094    0.00000000
     atom    2 type  1   force =    -0.00000000    0.00000047  -19.55135382
     atom    3 type  1   force =    -0.00000000    0.00000047   19.55135382
     The local contribution  to forces
     atom    1 type  2   force =    -0.00000000    0.00000000    0.00000000
     atom    2 type  1   force =     0.00000000   -0.00000081   19.21555997
     atom    3 type  1   force =     0.00000000   -0.00000081  -19.21555997
     The core correction contribution to forces
     atom    1 type  2   force =     0.00000000    0.00000000    0.00000000
     atom    2 type  1   force =     0.00000000    0.00000000    0.00000000
     atom    3 type  1   force =     0.00000000    0.00000000    0.00000000
     The Hubbard contrib.    to forces
     atom    1 type  2   force =     0.00000000    0.00000000    0.00000000
     atom    2 type  1   force =     0.00000000    0.00000000    0.00000000
     atom    3 type  1   force =     0.00000000    0.00000000    0.00000000
     The SCF correction term to forces
     atom    1 type  2   force =    -0.00000000    0.00000000    0.00000000
     atom    2 type  1   force =    -0.00000000   -0.00000000    0.00162001
     atom    3 type  1   force =    -0.00000000   -0.00000000   -0.00162001

     Total force =     0.017366     Total SCF correction =     0.002291
     SCF correction compared to forces is large: reduce conv_thr to get better values

     Writing output data file MoS2.save
 
     init_run     :      6.07s CPU      1.68s WALL (       1 calls)
     electrons    :     70.13s CPU     19.30s WALL (       1 calls)
     forces       :      0.31s CPU      0.09s WALL (       1 calls)

     Called by init_run:
     wfcinit      :      5.94s CPU      1.55s WALL (       1 calls)
     potinit      :      0.04s CPU      0.03s WALL (       1 calls)

     Called by electrons:
     c_bands      :     63.78s CPU     16.74s WALL (       8 calls)
     sum_band     :      6.02s CPU      2.47s WALL (       8 calls)
     v_of_rho     :      0.13s CPU      0.03s WALL (       9 calls)
     v_h          :      0.05s CPU      0.01s WALL (       9 calls)
     v_xc         :      0.08s CPU      0.02s WALL (       9 calls)
     mix_rho      :      0.13s CPU      0.03s WALL (       8 calls)

     Called by c_bands:
     init_us_2    :      1.07s CPU      0.33s WALL (     558 calls)
     cegterg      :     59.44s CPU     15.64s WALL (     248 calls)

     Called by sum_band:

     Called by *egterg:
     h_psi        :     60.69s CPU     16.07s WALL (     904 calls)
     g_psi        :      0.31s CPU      0.04s WALL (     625 calls)
     cdiaghg      :      1.81s CPU      0.25s WALL (     873 calls)
     cegterg:over :      0.50s CPU      0.22s WALL (     625 calls)
     cegterg:upda :      0.35s CPU      0.14s WALL (     625 calls)
     cegterg:last :      0.07s CPU      0.04s WALL (     248 calls)

     Called by h_psi:
     h_psi:vloc   :     59.42s CPU     15.57s WALL (     904 calls)
     h_psi:vnl    :      1.07s CPU      0.44s WALL (     904 calls)
     add_vuspsi   :      0.65s CPU      0.19s WALL (     904 calls)

     General routines
     calbec       :      0.42s CPU      0.27s WALL (    1028 calls)
     fft          :      0.15s CPU      0.05s WALL (      37 calls)
     fftw         :     61.48s CPU     16.89s WALL (   21956 calls)
 
     Parallel routines
     fft_scatter  :      8.06s CPU      2.16s WALL (   21993 calls)
 
     PWSCF        :  1m17.16s CPU     0m21.39s WALL

 
   This run was terminated on:  15:58:14  23Jun2020            

=------------------------------------------------------------------------------=
   JOB DONE.
=------------------------------------------------------------------------------=
